LAMMPS data file via write_data, version 22 Sep 2017, timestep = 100352

6000 atoms
4 atom types
5000 bonds
3 bond types
7000 angles
3 angle types
3000 dihedrals
1 dihedral types

-2.2132527831979665e+01 2.2132527831979665e+01 xlo xhi
-2.2131362737251273e+01 2.2131362737251273e+01 ylo yhi
-2.2130197642521988e+01 2.2130197642521988e+01 zlo zhi

Masses

1 12.01
2 1.008
3 12.01
4 14.01

Pair Coeffs # lj/cut/coul/long

1 0.109326 3.4
2 0.0156904 2.65
3 0.209859 3.4
4 0.169886 3.25

Bond Coeffs # harmonic

1 337.075 1.092
2 368.054 1.47
3 1013.82 1.138

Angle Coeffs # harmonic

1 58.061 178.5
2 39.4037 108.35
3 48.217 109.75

Dihedral Coeffs # charmm

1 0 2 180 0

Atoms # full

3863 644 3 4.6143699999999999e-01 -1.9019863427733330e+01 -2.1704484988338145e+01 -1.7545903152737136e+01 1 0 1
3859 644 1 -4.7574800000000000e-01 -1.8108113202105343e+01 -2.1390822112085360e+01 -1.6440532797205115e+01 1 0 1
4819 804 1 -4.7574800000000000e-01 -1.6098173034732490e+01 -1.1411360768330310e+01 -6.5942667805299404e+00 0 0 0
2724 454 4 -5.0581699999999996e-01 -1.7330038705008448e+01 -1.9984079846527614e+01 -2.0182051606050983e+01 0 0 0
5013 836 2 1.7337600000000000e-01 -1.5111759521763561e+01 -1.9152036339027674e+01 -1.9167138160402683e+01 0 0 0
3860 644 2 1.7337600000000000e-01 -1.8036563013825614e+01 -2.0344198922015035e+01 -1.6178066668263071e+01 1 0 1
5014 836 2 1.7337600000000000e-01 -1.3316811467217823e+01 -1.9112311440341070e+01 -1.8939150777584654e+01 0 0 0
5015 836 3 4.6143699999999999e-01 -1.4544825341992327e+01 -1.9485125519313282e+01 -1.7250641918839356e+01 0 0 0
5011 836 1 -4.7574800000000000e-01 -1.4304447797640137e+01 -1.8770547488773012e+01 -1.8526078463762587e+01 0 0 0
5012 836 2 1.7337600000000000e-01 -1.4412672607687636e+01 -1.7727677789876282e+01 -1.8376771101064513e+01 0 0 0
172 29 2 1.7337600000000000e-01 -2.1014040514858202e+01 -1.6324533370794569e+01 -4.5693932673904776e+00 1 0 0
3862 644 2 1.7337600000000000e-01 -1.8322158079682762e+01 -2.1996626834963521e+01 -1.5572533544836986e+01 1 0 1
5016 836 4 -5.0581699999999996e-01 -1.4800770122302938e+01 -2.0038188621651315e+01 -1.6329572612952514e+01 0 0 0
2723 454 3 4.6143699999999999e-01 -1.8380163596784826e+01 -1.9507176475292002e+01 -2.0164413567026358e+01 0 0 0
2721 454 2 1.7337600000000000e-01 -1.9525022777527958e+01 -1.7886547342708013e+01 -2.0738476411434181e+01 0 0 0
1648 275 2 1.7337600000000000e-01 -1.8720353860766405e+01 -7.4897365946669314e+00 -2.6799841372240074e+00 1 0 0
169 29 1 -4.7574800000000000e-01 -2.1528855923437366e+01 -1.5546903253390999e+01 -4.0210516798967149e+00 1 0 0
4326 721 4 -5.0581699999999996e-01 -1.3536560903565960e+01 -1.9684469959512978e+01 -2.1883424762572950e+01 0 0 0
5656 943 2 1.7337600000000000e-01 -1.1579602347668272e+01 -1.7565743009837661e+01 -1.9825604367123084e+01 1 0 0
4924 821 2 1.7337600000000000e-01 -2.1290685181315233e+01 -1.6513092662298479e+01 -1.4993218909517953e+01 1 0 0
1706 285 2 1.7337600000000000e-01 -1.8596109882986667e+01 -1.1543054555426494e+01 -3.3033331698333370e+00 1 1 0
5379 897 2 1.7337600000000000e-01 -1.1091944211192903e+01 -1.1678441631343649e+01 -4.9481631439886407e+00 1 1 0
2038 340 2 1.7337600000000000e-01 -1.9091013765570768e+01 -1.0222698207356679e+01 -2.1007863000215071e+01 0 0 1
5394 899 4 -5.0581699999999996e-01 -1.8207544204961902e+01 -1.6470193499528818e+01 -1.7533895138591859e+01 0 0 0
5393 899 3 4.6143699999999999e-01 -1.7445811285725078e+01 -1.6424326435970578e+01 -1.6694571809058221e+01 0 0 0
5390 899 2 1.7337600000000000e-01 -1.6747940363417769e+01 -1.5556567018557354e+01 -1.4822937494960948e+01 0 0 0
4881 814 2 1.7337600000000000e-01 -1.4919308002610315e+01 -2.1367797196254536e+01 -5.5361286412458703e+00 1 0 0
4297 717 1 -4.7574800000000000e-01 -1.1678375217449874e+01 -2.1875518345338953e+01 -1.8559693370296163e+01 0 0 0
5391 899 2 1.7337600000000000e-01 -1.5520828973353520e+01 -1.6375751149228524e+01 -1.5972593805975809e+01 0 0 0
5389 899 1 -4.7574800000000000e-01 -1.6536306411114595e+01 -1.6345947088426783e+01 -1.5563805078949768e+01 0 0 0
5392 899 2 1.7337600000000000e-01 -1.6594382263930868e+01 -1.7278471477207752e+01 -1.4981009387491294e+01 0 0 0
2722 454 2 1.7337600000000000e-01 -2.0121888097258790e+01 -1.8748741696139543e+01 -1.9244298817842836e+01 0 0 0
3861 644 2 1.7337600000000000e-01 -1.7155003256129675e+01 -2.1661845595168231e+01 -1.6819673960885456e+01 1 0 1
2719 454 1 -4.7574800000000000e-01 -1.9686510169929644e+01 -1.8857034136446948e+01 -2.0258066167570977e+01 0 0 0
852 142 4 -5.0581699999999996e-01 -1.2948161362395670e+01 -1.6150699613213767e+01 -1.4624225332694230e+01 0 0 0
5678 947 2 1.7337600000000000e-01 -1.1878324581086668e+01 -1.9641921824285838e+01 -1.4543825333961550e+01 0 0 0
4823 804 3 4.6143699999999999e-01 -1.5722875599430797e+01 -1.1854551144876623e+01 -5.2976415762391156e+00 0 0 0
1258 210 2 1.7337600000000000e-01 -1.7993143943927571e+01 -1.5873861512457349e+01 -2.0908515028249433e+01 0 0 0
2720 454 2 1.7337600000000000e-01 -2.0308470596622296e+01 -1.9541288124827833e+01 -2.0834972220582070e+01 0 0 0
2650 442 2 1.7337600000000000e-01 -2.2039317538924788e+01 -1.4536180662312750e+01 -7.3283976026939506e+00 0 0 0
4749 792 2 1.7337600000000000e-01 -2.0507363409430688e+01 -2.1473334800498751e+01 -3.7285924933049017e+00 1 1 0
1978 330 2 1.7337600000000000e-01 -2.0138528404493911e+01 -7.4830680138020078e+00 -1.0058030798279619e+01 1 0 0
5658 943 4 -5.0581699999999996e-01 -1.2936600658396953e+01 -1.5721611396655138e+01 -2.1782023048391483e+01 1 0 0
5906 985 2 1.7337600000000000e-01 -1.3021744028793476e+01 -7.5359241879486731e+00 -7.6921221646965332e+00 0 0 0
1021 171 1 -4.7574800000000000e-01 -1.1624156773285286e+01 -1.0227692738781238e+01 -1.1043161523981903e+01 0 0 0
5657 943 3 4.6143699999999999e-01 -1.2108910024481936e+01 -1.6142925578518856e+01 -2.1173555812238021e+01 1 0 0
5681 947 3 4.6143699999999999e-01 -1.1116726155136684e+01 -1.8634631257623930e+01 -1.6248731447883387e+01 0 0 0
1705 285 1 -4.7574800000000000e-01 -1.9073677853514333e+01 -1.2483078061161262e+01 -3.6174822415787489e+00 1 1 0
4298 717 2 1.7337600000000000e-01 -1.1173913728087685e+01 -2.1039310967745958e+01 -1.8019965860290576e+01 0 0 0
4271 712 3 4.6143699999999999e-01 -1.4175117977033128e+01 -9.2033261373957043e+00 -1.9218600518139766e+01 0 0 0
1256 210 2 1.7337600000000000e-01 -1.7224606032113897e+01 -1.4402185604211853e+01 -2.0671101674789501e+01 0 0 0
1670 279 2 1.7337600000000000e-01 -2.1132697352386412e+01 -1.3835008892167263e+01 -7.7759108149805201e-01 0 0 0
4268 712 2 1.7337600000000000e-01 -1.5048126762266172e+01 -1.1015428174255346e+01 -1.9881419376889717e+01 0 0 0
447 75 2 1.7337600000000000e-01 -1.8931897949405798e+01 -1.2662458823688416e+01 -1.7243229718750680e+01 1 0 0
1348 225 2 1.7337600000000000e-01 -1.4125624504403639e+01 -1.4889155273405876e+01 -1.9389023186875463e+01 0 0 0
446 75 2 1.7337600000000000e-01 -2.0344591234788371e+01 -1.3053569573602335e+01 -1.8372036030752646e+01 1 0 0
449 75 3 4.6143699999999999e-01 -2.0034497243119446e+01 -1.1030221108402293e+01 -1.8200660653163546e+01 1 0 0
445 75 1 -4.7574800000000000e-01 -1.9513053347044846e+01 -1.2389274069774801e+01 -1.8146368451401592e+01 1 0 0
5653 943 1 -4.7574800000000000e-01 -1.1097100675519807e+01 -1.6739676750962388e+01 -2.0261139758132693e+01 1 0 0
1350 225 4 -5.0581699999999996e-01 -1.5691617368593963e+01 -1.3321282271583783e+01 -1.7363262246693370e+01 0 0 0
1349 225 3 4.6143699999999999e-01 -1.4817741830891087e+01 -1.3925743333060286e+01 -1.7750895219406420e+01 0 0 0
1345 225 1 -4.7574800000000000e-01 -1.3713954390047927e+01 -1.4616296265961322e+01 -1.8404412601385708e+01 0 0 0
2400 400 4 -5.0581699999999996e-01 -1.2542658556547170e+01 -1.1748230767293999e+01 -1.5539457820367389e+01 0 0 0
450 75 4 -5.0581699999999996e-01 -2.0473951002821146e+01 -9.9749733183879208e+00 -1.8224674373681299e+01 1 0 0
448 75 2 1.7337600000000000e-01 -1.8884897480717395e+01 -1.2458681729804763e+01 -1.8986390094185968e+01 1 0 0
1346 225 2 1.7337600000000000e-01 -1.3421904533623373e+01 -1.5516012191876570e+01 -1.7835046115400417e+01 0 0 0
1347 225 2 1.7337600000000000e-01 -1.2857798668579058e+01 -1.3902651464207949e+01 -1.8472211897542206e+01 0 0 0
2035 340 1 -4.7574800000000000e-01 -1.8093967681418182e+01 -1.0064179558203824e+01 -2.1330446509679657e+01 0 0 1
2036 340 2 1.7337600000000000e-01 -1.7300088957508404e+01 -1.0149587906478777e+01 -2.0567455809142992e+01 0 0 1
2039 340 3 4.6143699999999999e-01 -1.8004235416647187e+01 -8.6588734261811151e+00 -2.1789269968150993e+01 0 0 1
1255 210 1 -4.7574800000000000e-01 -1.7026975504972867e+01 -1.5483295119931325e+01 -2.0918879015566784e+01 0 0 0
4074 679 4 -5.0581699999999996e-01 -1.7199166365270873e+01 -9.1248988574745997e+00 -1.6233834684187144e+01 0 0 0
3565 595 1 -4.7574800000000000e-01 -1.3651524959747697e+01 -8.0847524529020074e+00 -1.5652066845349403e+01 0 0 1
3567 595 2 1.7337600000000000e-01 -1.2630151862705588e+01 -7.8157941655152658e+00 -1.5345590107349917e+01 0 0 1
4073 679 3 4.6143699999999999e-01 -1.7340638583372215e+01 -8.1139147998920098e+00 -1.6801727256934726e+01 0 0 0
1257 210 2 1.7337600000000000e-01 -1.6292478590639838e+01 -1.5846824777142784e+01 -2.0183889459697067e+01 0 0 0
4269 712 2 1.7337600000000000e-01 -1.5286602823517498e+01 -1.0612644546237872e+01 -1.8117770740606275e+01 0 0 0
4824 804 4 -5.0581699999999996e-01 -1.5540683466825868e+01 -1.2080377930323742e+01 -4.2265290148812547e+00 0 0 0
4267 712 1 -4.7574800000000000e-01 -1.4573353937284979e+01 -1.0585695990988560e+01 -1.8958291189326722e+01 0 0 0
2685 448 2 1.7337600000000000e-01 -2.2090036328635662e+01 -1.0721129416441036e+01 -3.1799365294099431e+00 0 0 0
4821 804 2 1.7337600000000000e-01 -1.6674825280714568e+01 -1.2204504420978772e+01 -7.0394958505001508e+00 0 0 0
4272 712 4 -5.0581699999999996e-01 -1.3992280284059635e+01 -8.1202605761854922e+00 -1.9377970100242454e+01 0 0 0
2399 400 3 4.6143699999999999e-01 -1.3643089507354439e+01 -1.1934871832329568e+01 -1.5161362613208603e+01 0 0 0
2397 400 2 1.7337600000000000e-01 -1.5098351708801770e+01 -1.1677182866686946e+01 -1.3666594127840893e+01 0 0 0
2396 400 2 1.7337600000000000e-01 -1.5736572222304767e+01 -1.1725312764070916e+01 -1.5337378131529347e+01 0 0 0
4270 712 2 1.7337600000000000e-01 -1.3646023270198951e+01 -1.1145166348796629e+01 -1.8777056235439275e+01 0 0 0
2826 471 4 -5.0581699999999996e-01 -2.0157120615234060e+01 -1.2920576569500840e+01 -2.1345449301988442e+01 1 0 1
5242 874 2 1.7337600000000000e-01 -2.1543134999313924e+01 -1.6142427889718839e+01 -1.8509957677480912e+01 1 0 1
5606 935 2 1.7337600000000000e-01 -2.1393184537727510e+01 -8.1962223387965256e+00 -2.0832534056359513e+01 1 0 0
3566 595 2 1.7337600000000000e-01 -1.3652113622109242e+01 -8.9001700634445697e+00 -1.6357512943177994e+01 0 0 1
4580 764 2 1.7337600000000000e-01 -2.1639272696541482e+01 -2.1309311368304172e+01 -1.3057723410446796e+01 1 0 0
1216 203 2 1.7337600000000000e-01 -1.5207827919255783e+01 -1.2935035961991872e+01 -9.0006503263952453e-01 0 0 0
1266 211 4 -5.0581699999999996e-01 -1.9524368571191854e+01 -9.2644835171121471e+00 -4.6808731677502813e+00 1 0 0
2647 442 1 -4.7574800000000000e-01 -2.1981329565372839e+01 -1.5252320456046739e+01 -8.2574881664819841e+00 0 0 0
1391 232 3 4.6143699999999999e-01 -1.1833227369259610e+01 -1.8488898697447258e+01 -9.5401080405379695e+00 0 0 0
2485 415 1 -4.7574800000000000e-01 -2.2068887033876397e+01 -1.0933477709126459e+01 -1.4407841898171489e+01 1 0 0
5377 897 1 -4.7574800000000000e-01 -1.1969591097234170e+01 -1.2303230892380675e+01 -4.6852648490686768e+00 1 1 0
851 142 3 4.6143699999999999e-01 -1.2609796052168180e+01 -1.5346387144734653e+01 -1.3906947952142820e+01 0 0 0
4021 671 1 -4.7574800000000000e-01 -2.2065339608240421e+01 -9.6623133463303041e+00 -5.7118125909245876e-01 1 0 0
4579 764 1 -4.7574800000000000e-01 -2.1191295303967003e+01 -2.0508166491174052e+01 -1.3672389267949139e+01 1 0 0
822 137 4 -5.0581699999999996e-01 -1.4527369449820871e+01 -2.1663231562525780e+01 -1.1967123681681077e+01 0 1 0
821 137 3 4.6143699999999999e-01 -1.5009028020684489e+01 -2.0726562370427533e+01 -1.2321745132456094e+01 0 1 0
817 137 1 -4.7574800000000000e-01 -1.5493614646773366e+01 -1.9458725816489228e+01 -1.2881720988324586e+01 0 1 0
818 137 2 1.7337600000000000e-01 -1.5171538364304425e+01 -1.9351457799398379e+01 -1.3906513610071629e+01 0 1 0
819 137 2 1.7337600000000000e-01 -1.5001586591157324e+01 -1.8660391559457530e+01 -1.2353189765079710e+01 0 1 0
820 137 2 1.7337600000000000e-01 -1.6620664350770170e+01 -1.9394828687250524e+01 -1.2745130674957707e+01 0 1 0
336 56 4 -5.0581699999999996e-01 -1.5479496889321840e+01 -1.6688403360014828e+01 -9.1916087960375190e+00 0 0 0
335 56 3 4.6143699999999999e-01 -1.6234070138015401e+01 -1.6332951466926424e+01 -8.3798167597278841e+00 0 0 0
4753 793 1 -4.7574800000000000e-01 -2.1099664629645851e+01 -1.9760925243881115e+01 -9.2802666758966321e+00 1 1 0
4135 690 1 -4.7574800000000000e-01 -1.6699120225584544e+01 -2.0643095835859473e+01 -8.5300800121708757e+00 0 0 0
4820 804 2 1.7337600000000000e-01 -1.6834238914576886e+01 -1.0590229625891723e+01 -6.4787007631833369e+00 0 0 0
849 142 2 1.7337600000000000e-01 -1.2844696842507592e+01 -1.3994974653672390e+01 -1.2178844896671356e+01 0 0 0
4757 793 3 4.6143699999999999e-01 -2.0488232386459782e+01 -1.8820456767806874e+01 -8.3216179114881239e+00 1 1 0
4150 692 2 1.7337600000000000e-01 -1.9098764872935032e+01 -1.6865696243522329e+01 -1.1184181153407499e+01 0 0 0
1387 232 1 -4.7574800000000000e-01 -1.1375078873034097e+01 -1.9555988656995453e+01 -1.0341759746217418e+01 0 0 0
4755 793 2 1.7337600000000000e-01 -2.1063629975579357e+01 -1.9337148917559269e+01 -1.0313054427539351e+01 1 1 0
331 56 1 -4.7574800000000000e-01 -1.7325269329440140e+01 -1.6076677916664881e+01 -7.4304068635440821e+00 0 0 0
4754 793 2 1.7337600000000000e-01 -2.0566394683465727e+01 -2.0677877458890727e+01 -9.4427722159183265e+00 1 1 0
1646 275 2 1.7337600000000000e-01 -1.7706879888522923e+01 -7.9464569117766271e+00 -1.4439969967070354e+00 1 0 0
4152 692 4 -5.0581699999999996e-01 -1.8941675734982212e+01 -1.8231425242825331e+01 -1.3931367665703103e+01 0 0 0
4148 692 2 1.7337600000000000e-01 -1.8575011880175666e+01 -1.5638379853360934e+01 -1.2231734372947084e+01 0 0 0
4151 692 3 4.6143699999999999e-01 -1.8689787131300985e+01 -1.7463465248732767e+01 -1.3126454313384697e+01 0 0 0
4147 692 1 -4.7574800000000000e-01 -1.8360279911609339e+01 -1.6624953206355855e+01 -1.1950960718000083e+01 0 0 0
5708 952 2 1.7337600000000000e-01 -1.7412029254261395e+01 -1.9793760190159901e+01 -7.7457156580320330e-01 1 0 0
1390 232 2 1.7337600000000000e-01 -1.2192840730600549e+01 -2.0236599167009466e+01 -1.0486306218478221e+01 0 0 0
4139 690 3 4.6143699999999999e-01 -1.5225065222691025e+01 -2.0624846603859069e+01 -8.3219757631995073e+00 0 0 0
4136 690 2 1.7337600000000000e-01 -1.7239809396582547e+01 -1.9839285216463399e+01 -8.0622428082127282e+00 0 0 0
4137 690 2 1.7337600000000000e-01 -1.7111606876729965e+01 -2.1552454175182056e+01 -8.1367822910536027e+00 0 0 0
5382 897 4 -5.0581699999999996e-01 -1.2890408958275437e+01 -1.1850348580956775e+01 -2.3211256125791131e+00 1 1 0
1708 285 2 1.7337600000000000e-01 -2.0130848497751781e+01 -1.2576237466637883e+01 -3.3044675927804263e+00 1 1 0
3062 511 2 1.7337600000000000e-01 -1.2712971621949643e+01 -1.5115066892445963e+01 -9.1761722790654012e+00 0 0 0
4149 692 2 1.7337600000000000e-01 -1.7351133907059687e+01 -1.6955822300924002e+01 -1.1651061021220832e+01 0 0 0
1261 211 1 -4.7574800000000000e-01 -2.0071550672692698e+01 -7.4840553691941931e+00 -6.4469788191869046e+00 1 0 0
334 56 2 1.7337600000000000e-01 -1.7436794103942873e+01 -1.6952490973064904e+01 -6.8732219994953727e+00 0 0 0
4140 690 4 -5.0581699999999996e-01 -1.4113133351165652e+01 -2.0657674701286226e+01 -8.1108181860009605e+00 0 0 0
332 56 2 1.7337600000000000e-01 -1.8245935316354689e+01 -1.5876899221393904e+01 -8.0883689269453782e+00 0 0 0
4582 764 2 1.7337600000000000e-01 -2.0494505807917186e+01 -2.0926278113003036e+01 -1.4367252201888491e+01 1 0 0
4944 824 4 -5.0581699999999996e-01 -1.8541433706135578e+01 -2.1209063213818624e+01 -1.1802418353869463e+01 0 1 0
1392 232 4 -5.0581699999999996e-01 -1.2018953089412797e+01 -1.7529023004291410e+01 -8.9490555926106179e+00 0 0 0
1265 211 3 4.6143699999999999e-01 -1.9734051245673204e+01 -8.4672658117359578e+00 -5.4534398074579222e+00 1 0 0
2487 415 2 1.7337600000000000e-01 -2.1649251472966164e+01 -1.0696567811729484e+01 -1.5350146921667777e+01 1 0 0
3065 511 3 4.6143699999999999e-01 -1.1222803982432369e+01 -1.3631098676476336e+01 -9.4359517581360954e+00 0 0 0
1710 285 4 -5.0581699999999996e-01 -1.8976473490887415e+01 -1.2871063548385804e+01 -6.2091131835778839e+00 1 1 0
847 142 1 -4.7574800000000000e-01 -1.2182434043402635e+01 -1.4355730328582634e+01 -1.2862053146861472e+01 0 0 0
848 142 2 1.7337600000000000e-01 -1.1303853115950341e+01 -1.4706316914140121e+01 -1.2306665540777752e+01 0 0 0
3063 511 2 1.7337600000000000e-01 -1.3127969620081480e+01 -1.3468833005875567e+01 -8.7221105500421228e+00 0 0 0
2651 442 3 4.6143699999999999e-01 -2.0735666500706081e+01 -1.4917290232918598e+01 -9.0191556623629801e+00 0 0 0
5908 985 2 1.7337600000000000e-01 -1.3816023763113314e+01 -8.6714460443854993e+00 -6.8898458434467234e+00 0 0 0
2652 442 4 -5.0581699999999996e-01 -1.9815624965148032e+01 -1.4575259252196226e+01 -9.5855554189919250e+00 0 0 0
3570 595 4 -5.0581699999999996e-01 -1.4919190398607537e+01 -8.4459410096169290e+00 -1.3412064380628934e+01 0 0 1
3061 511 1 -4.7574800000000000e-01 -1.2336339408371812e+01 -1.4190398994413425e+01 -8.6337713352649246e+00 0 0 0
165 28 2 1.7337600000000000e-01 -1.7333380498480825e+01 -1.0453001088184795e+01 -1.3959918399305563e+01 1 0 1
2398 400 2 1.7337600000000000e-01 -1.5164837490819570e+01 -1.3207642661871807e+01 -1.4460342489234540e+01 0 0 0
2395 400 1 -4.7574800000000000e-01 -1.4999109647357511e+01 -1.2142630311165609e+01 -1.4610010374823279e+01 0 0 0
850 142 2 1.7337600000000000e-01 -1.1878463954832608e+01 -1.3520210124111440e+01 -1.3469854919044497e+01 0 0 0
166 28 2 1.7337600000000000e-01 -1.8664117321643502e+01 -1.0133434019500106e+01 -1.2685182743581175e+01 1 0 1
164 28 2 1.7337600000000000e-01 -1.9026495053299048e+01 -1.0001670605326794e+01 -1.4383817230091587e+01 1 0 1
168 28 4 -5.0581699999999996e-01 -1.9060693678533507e+01 -1.3091516242842747e+01 -1.3645322149390282e+01 1 0 1
3750 625 4 -5.0581699999999996e-01 -2.0575493559911997e+01 -9.9548338354340427e+00 -1.1124213204799707e+01 1 0 1
2326 388 2 1.7337600000000000e-01 -1.6529644417465683e+01 -1.1731883331643511e+01 -1.0028641679403517e+01 0 1 0
163 28 1 -4.7574800000000000e-01 -1.8418467658909737e+01 -1.0564619556602890e+01 -1.3655532936309150e+01 1 0 1
167 28 3 4.6143699999999999e-01 -1.8766609318425328e+01 -1.1976859299974384e+01 -1.3623303246751920e+01 1 0 1
2328 388 4 -5.0581699999999996e-01 -1.5630211085506858e+01 -1.4170402766782834e+01 -1.1814858421283883e+01 0 1 0
2327 388 3 4.6143699999999999e-01 -1.6228319487018684e+01 -1.3558993456034624e+01 -1.1059620666817652e+01 0 1 0
2323 388 1 -4.7574800000000000e-01 -1.6857321015699167e+01 -1.2748503535149899e+01 -1.0032157310142043e+01 0 1 0
1026 171 4 -5.0581699999999996e-01 -1.3604537585353237e+01 -1.0631156340017931e+01 -9.4361538111436083e+00 0 0 0
1025 171 3 4.6143699999999999e-01 -1.2782073216419780e+01 -1.0427739097757213e+01 -1.0205667969112207e+01 0 0 0
3749 625 3 4.6143699999999999e-01 -2.0138264329935613e+01 -1.0336415751158251e+01 -1.0133771024244044e+01 1 0 1
3745 625 1 -4.7574800000000000e-01 -1.9662881469707912e+01 -1.0724824253067764e+01 -8.7391412542627585e+00 1 0 1
2325 388 2 1.7337600000000000e-01 -1.7856252544355790e+01 -1.2691592698929938e+01 -1.0364171113751768e+01 0 1 0
2324 388 2 1.7337600000000000e-01 -1.6855960024490003e+01 -1.3269913530402418e+01 -9.0860396858594878e+00 0 1 0
3746 625 2 1.7337600000000000e-01 -1.9628800082902558e+01 -1.1887789613919493e+01 -8.6731016791591866e+00 1 0 1
4956 826 4 -5.0581699999999996e-01 -1.7119396815168862e+01 -8.9440426111612368e+00 -1.0026542410996763e+01 0 0 0
3569 595 3 4.6143699999999999e-01 -1.4415592286092743e+01 -8.3503975599444882e+00 -1.4421095743069211e+01 0 0 1
3748 625 2 1.7337600000000000e-01 -1.8633999350042892e+01 -1.0467747009322514e+01 -8.4972846140204563e+00 1 0 1
1024 171 2 1.7337600000000000e-01 -1.1810708566882818e+01 -9.8034206116135874e+00 -1.2056517899350716e+01 0 0 0
4955 826 3 4.6143699999999999e-01 -1.6364538663334269e+01 -8.1053428307214528e+00 -1.0186280118179342e+01 0 0 0
5682 947 4 -5.0581699999999996e-01 -1.1180211253004787e+01 -1.8103316584013637e+01 -1.7252821563197745e+01 0 0 0
4581 764 2 1.7337600000000000e-01 -2.0680805240476865e+01 -1.9838592402607620e+01 -1.2949617343365661e+01 1 0 0
3747 625 2 1.7337600000000000e-01 -2.0250418867889781e+01 -1.0300550505089898e+01 -7.9751665556873839e+00 1 0 1
1709 285 3 4.6143699999999999e-01 -1.8952075755656558e+01 -1.2745222385485112e+01 -5.0674968539459506e+00 1 1 0
171 29 2 1.7337600000000000e-01 -2.1303063059590343e+01 -1.4557150287062880e+01 -4.5132728731717471e+00 1 0 0
5712 952 4 -5.0581699999999996e-01 -2.0035829906098733e+01 -2.1673802079394452e+01 -1.0516017924465544e+00 1 0 0
4748 792 2 1.7337600000000000e-01 -1.9238512889425866e+01 -2.1703755234256871e+01 -4.9836386323410657e+00 1 1 0
52 9 2 1.7337600000000000e-01 -1.1570049863622877e+01 -2.1503927956308608e+01 -5.8790117108737157e+00 0 1 1
5279 880 3 4.6143699999999999e-01 -1.4925320102515805e+01 -8.4666844773227350e+00 -3.8730295696120329e+00 0 0 0
170 29 2 1.7337600000000000e-01 -2.1295812011521534e+01 -1.5680054238442361e+01 -3.0074264068232495e+00 1 0 0
2486 415 2 1.7337600000000000e-01 -2.1432223851432482e+01 -1.0415755481169963e+01 -1.3646626569183253e+01 1 0 0
1264 211 2 1.7337600000000000e-01 -2.0890333657835107e+01 -7.9394283328946926e+00 -7.0506111627354180e+00 1 0 0
333 56 2 1.7337600000000000e-01 -1.7094504004470565e+01 -1.5199199506471611e+01 -6.8254694165376186e+00 0 0 0
3524 588 2 1.7337600000000000e-01 -1.3894229160394779e+01 -1.4854206257084925e+01 -2.4979691893454863e+00 0 0 0
5277 880 2 1.7337600000000000e-01 -1.4254318432457634e+01 -9.7889093951078117e+00 -2.3508391869274803e+00 0 0 0
4138 690 2 1.7337600000000000e-01 -1.6875751570863198e+01 -2.0579693089971379e+01 -9.6113947841978202e+00 0 0 0
2357 393 3 4.6143699999999999e-01 -1.3386589392642639e+01 -2.1585915222116093e+01 -1.5301956457345085e+00 0 0 0
5710 952 2 1.7337600000000000e-01 -1.8008916953911875e+01 -1.9884674323314385e+01 -2.5164129886778532e+00 1 0 0
5707 952 1 -4.7574800000000000e-01 -1.8316139554501589e+01 -1.9729931120381249e+01 -1.4673441853813678e+00 1 0 0
3527 588 3 4.6143699999999999e-01 -1.2936987923792664e+01 -1.6649067237427843e+01 -1.7419735211813787e+00 0 0 0
3426 571 4 -5.0581699999999996e-01 -2.1278484662551651e+01 -1.7900395373643370e+01 -1.8061413778016870e+00 1 1 0
4300 717 2 1.7337600000000000e-01 -1.2378188756363294e+01 -2.1497313301491435e+01 -1.9333066753625030e+01 0 0 0
4747 792 1 -4.7574800000000000e-01 -2.0243942844264215e+01 -2.1299315209625711e+01 -4.7589244247695603e+00 1 1 0
490 82 2 1.7337600000000000e-01 -1.1891426063650275e+01 -1.7723446176202035e+01 -5.0173282537613133e+00 0 0 0
488 82 2 1.7337600000000000e-01 -1.2927477120775674e+01 -1.8298997100987975e+01 -6.3735438298654508e+00 0 0 0
487 82 1 -4.7574800000000000e-01 -1.2930190724411625e+01 -1.7992650162825417e+01 -5.3357497378546341e+00 0 0 0
2118 353 4 -5.0581699999999996e-01 -1.7256415257350756e+01 -1.8555111069525129e+01 -4.8378065561136481e+00 0 1 0
2117 353 3 4.6143699999999999e-01 -1.7289597056614443e+01 -1.7623809822848401e+01 -4.1543085322706546e+00 0 1 0
4758 793 4 -5.0581699999999996e-01 -2.0039682310615930e+01 -1.8082718260504066e+01 -7.5888684599675056e+00 1 1 0
2116 353 2 1.7337600000000000e-01 -1.8371271833129800e+01 -1.6161321422460365e+01 -3.2240531906064227e+00 0 1 0
2115 353 2 1.7337600000000000e-01 -1.6910553259267783e+01 -1.6605504717961313e+01 -2.2548697073289965e+00 0 1 0
2113 353 1 -4.7574800000000000e-01 -1.7338903037994271e+01 -1.6444281379464165e+01 -3.2865995572262996e+00 0 1 0
2114 353 2 1.7337600000000000e-01 -1.6778541026080173e+01 -1.5665225311130795e+01 -3.7557317189978221e+00 0 1 0
489 82 2 1.7337600000000000e-01 -1.3398153270735900e+01 -1.8721211586269419e+01 -4.6098292190072279e+00 0 0 0
492 82 4 -5.0581699999999996e-01 -1.4317599008204994e+01 -1.5816488059802076e+01 -5.1613064552873453e+00 0 0 0
491 82 3 4.6143699999999999e-01 -1.3750906951892468e+01 -1.6808581473463889e+01 -5.2617557364559104e+00 0 0 0
2358 393 4 -5.0581699999999996e-01 -1.2613050171406536e+01 -2.1181908436812318e+01 -2.2936805205306285e+00 0 0 0
5711 952 3 4.6143699999999999e-01 -1.9275311059918508e+01 -2.0864717727461795e+01 -1.2340907052517309e+00 1 0 0
3528 588 4 -5.0581699999999996e-01 -1.2543562495772157e+01 -1.7683375923556291e+01 -1.8104847499307084e+00 0 0 0
3864 644 4 -5.0581699999999996e-01 -1.9672014788206202e+01 -2.1878134405192679e+01 -1.8483495840339955e+01 1 0 1
5709 952 2 1.7337600000000000e-01 -1.8760722978581256e+01 -1.8766291983452319e+01 -1.3304405528660936e+00 1 0 0
3525 588 2 1.7337600000000000e-01 -1.2775922405265907e+01 -1.4581269247559685e+01 -1.0567465880343079e+00 0 0 0
3526 588 2 1.7337600000000000e-01 -1.4310465955623769e+01 -1.5388532459014685e+01 -9.1823873149275670e-01 0 0 0
3523 588 1 -4.7574800000000000e-01 -1.3475721075111256e+01 -1.5268726842806489e+01 -1.5894981591650712e+00 0 0 0
2648 442 2 1.7337600000000000e-01 -2.1841090734195564e+01 -1.6241748654195000e+01 -7.8906147655457257e+00 0 0 0
4750 792 2 1.7337600000000000e-01 -2.0156669630843680e+01 -2.0211175980203404e+01 -5.0190530099579611e+00 1 1 0
4751 792 3 4.6143699999999999e-01 -2.1148065329390771e+01 -2.1780632026093542e+01 -5.7435561754231728e+00 1 1 0
4822 804 2 1.7337600000000000e-01 -1.5258561048000360e+01 -1.1042325807100770e+01 -7.2014767885652500e+00 0 0 0
5381 897 3 4.6143699999999999e-01 -1.2516765142319969e+01 -1.1978319815452737e+01 -3.3434757258041152e+00 1 1 0
4025 671 3 4.6143699999999999e-01 -2.0643947756751249e+01 -1.0076962021488523e+01 -6.8634236245421221e-01 1 0 0
1218 203 4 -5.0581699999999996e-01 -1.7936239708536508e+01 -1.4389978498928514e+01 -6.5890596399094292e-01 0 0 0
1213 203 1 -4.7574800000000000e-01 -1.5853256941987246e+01 -1.2975604399261162e+01 -3.5489065127944031e-02 0 0 0
5378 897 2 1.7337600000000000e-01 -1.1783329221265060e+01 -1.3393025780533209e+01 -4.6296869048693345e+00 1 1 0
5380 897 2 1.7337600000000000e-01 -1.2672746260405065e+01 -1.2067303442027406e+01 -5.4746012260515862e+00 1 1 0
3064 511 2 1.7337600000000000e-01 -1.2038574502105867e+01 -1.4509153392081650e+01 -7.6551012861964942e+00 0 0 0
1707 285 2 1.7337600000000000e-01 -1.8461087373944753e+01 -1.3289315618547446e+01 -3.1085212838921557e+00 1 1 0
5275 880 1 -4.7574800000000000e-01 -1.3954533713731527e+01 -8.8486194319399196e+00 -2.9176154135051213e+00 0 0 0
5905 985 1 -4.7574800000000000e-01 -1.3059950073056743e+01 -7.9233559035993988e+00 -6.6819568182311642e+00 0 0 0
5909 985 3 4.6143699999999999e-01 -1.1810405546489932e+01 -8.6762922827368030e+00 -6.5576730296516601e+00 0 0 0
5278 880 2 1.7337600000000000e-01 -1.3890577998895825e+01 -8.0765585565546232e+00 -2.2419079428100730e+00 0 0 0
5276 880 2 1.7337600000000000e-01 -1.2925096468987903e+01 -9.0663190330595764e+00 -3.3312530745972175e+00 0 0 0
1217 203 3 4.6143699999999999e-01 -1.7059589478702119e+01 -1.3738657287846232e+01 -3.1481125019001510e-01 0 0 0
4026 671 4 -5.0581699999999996e-01 -1.9546446420352041e+01 -1.0253889543815793e+01 -8.2984536481617255e-01 1 0 0
5280 880 4 -5.0581699999999996e-01 -1.5786319998158394e+01 -8.2300166498658633e+00 -4.5735566660033022e+00 0 0 0
3668 612 2 1.7337600000000000e-01 -1.1101148526570379e+01 -8.2158858740669967e+00 -1.6285878482371920e+00 0 0 0
1669 279 1 -4.7574800000000000e-01 -2.1480650463871967e+01 -1.4583762072780740e+01 -6.9910332400120012e-02 0 0 0
4022 671 2 1.7337600000000000e-01 -2.2102421770114674e+01 -8.7880190346395484e+00 -1.9883390054719285e-02 1 0 0
5505 918 2 1.7337600000000000e-01 -1.2324230614000207e+01 -1.1903288332323408e+01 -2.2095909741540257e+01 0 0 1
1672 279 2 1.7337600000000000e-01 -2.0909249444240430e+01 -1.5518974281691239e+01 -2.1008284030947522e-01 0 0 0
4516 753 2 1.7337600000000000e-01 -1.8627236673175954e+01 -1.7442499303777737e+01 3.0577376881170686e+00 1 0 0
998 167 2 1.7337600000000000e-01 -2.2010183442745326e+01 -2.2096837956392129e+01 1.8525860132138732e+00 1 0 0
5513 919 3 4.6143699999999999e-01 -1.1779435905775125e+01 -2.0518593146622504e+01 6.6475599220568178e+00 1 1 0
4513 753 1 -4.7574800000000000e-01 -1.7991256012874704e+01 -1.8091060610503988e+01 2.4202362714919623e+00 1 0 0
5730 955 4 -5.0581699999999996e-01 -2.0028486050734827e+01 -1.5492671316525378e+01 5.9154155363665026e+00 0 0 0
5511 919 2 1.7337600000000000e-01 -1.3595148095740067e+01 -2.1025014983524258e+01 7.4337191597469463e+00 1 1 0
5509 919 1 -4.7574800000000000e-01 -1.3109473327315193e+01 -2.0152024555965021e+01 7.0876885252968975e+00 1 1 0
4445 741 3 4.6143699999999999e-01 -1.1662593667525947e+01 -1.5143624190280045e+01 3.5219200199066876e+00 0 0 0
5512 919 2 1.7337600000000000e-01 -1.3627448230765738e+01 -1.9817377806359801e+01 6.1743008475718817e+00 1 1 0
4934 823 2 1.7337600000000000e-01 -1.5203222199356347e+01 -7.6438332375998712e+00 2.2054689431915552e+01 0 0 0
4515 753 2 1.7337600000000000e-01 -1.8725205288822590e+01 -1.8562194451088175e+01 1.7812214645645668e+00 1 0 0
4514 753 2 1.7337600000000000e-01 -1.7495703421539034e+01 -1.8802747889780051e+01 3.0204218533669867e+00 1 0 0
4444 741 2 1.7337600000000000e-01 -1.1564336389358713e+01 -1.4290655689352603e+01 1.6027122721847782e+00 0 0 0
4441 741 1 -4.7574800000000000e-01 -1.2306048031592102e+01 -1.4706423290433790e+01 2.3162514669573646e+00 0 0 0
569 95 3 4.6143699999999999e-01 -1.3802678314233017e+01 -1.9052149566438281e+01 2.2685832484886994e+00 0 1 0